11
Lattice="9.98968912 0.0 0.0 0.0 8.58887825 0.0 0.0 0.0 8.03978695" Properties=species:S:1:pos:R:3:forces:R:3 energy=-3237.401949932916 free_energy=-3237.401949932916 pbc="F F F"
C        3.74229226       3.89038698       4.39724088      -2.00115442      -0.42053872       0.54614317
C        4.93141826       4.74436313       4.10663181      -0.90212196       2.06764483      -1.28130853
C        6.22530571       4.01204306       4.04540907       2.39326501      -0.27299130       0.08955101
H        3.17870652       3.58172552       3.49149117       0.48186126      -0.01734697       0.43009457
H        3.00000000       4.42880255       5.03978695       0.47341919      -0.39322570      -0.46154848
H        4.04592306       3.00000000       4.94861400      -0.25777471      -0.14906800       0.02454090
H        4.95210501       5.58887825       4.84027519       0.21610661      -0.68210995      -0.54207665
H        4.76248597       5.21187314       3.09398275       0.20227952      -0.00500971       1.08334160
H        6.98968912       4.63155088       4.58164548      -0.16787766      -0.59452188      -0.59204030
H        6.59052167       3.83580555       3.00000000      -0.32555637       0.12330620       0.83374667
H        6.22321201       3.03302228       4.55307249      -0.11244664       0.34386131      -0.13044396
11
Lattice="9.974666942750806 0.0 0.0 0.0 8.585132094350577 0.0 0.0 0.0 8.012121144928408" Properties=species:S:1:pos:R:3:forces:R:3 energy=-3237.526099573653 free_energy=-3237.526099573653 pbc="F F F"
C        3.71165052       3.89815718       4.38014192      -0.35058421      -0.44380671       0.60522026
C        4.91733693       4.77024516       4.08923812      -0.74187267       0.41422468      -1.09703827
C        6.22388382       4.02141648       4.03719854       1.28426182      -0.05329120      -0.26789528
H        3.18043961       3.59154820       3.48362924       0.04072564      -0.17848238      -0.17250073
H        3.00000000       4.42792245       5.01212114      -0.18532766       0.00650242       0.03532052
H        4.02483690       3.00000000       4.92928536      -0.27866474       0.09411659      -0.08378305
H        4.94546098       5.58513209       4.81166935       0.17191000       0.00798205       0.03074529
H        4.75689722       5.22274132       3.09313278       0.09282164       0.24863851       0.52103090
H        6.97466694       4.62603506       4.55373684       0.31398618      -0.16584571      -0.17131001
H        6.57923091       3.84772897       3.00000000      -0.22091316       0.05927009       0.52971601
H        6.21057534       3.05216112       4.53502342      -0.12634277       0.01069157       0.07049417
11
Lattice="9.992255092507 0.0 0.0 0.0 8.586980460462094 0.0 0.0 0.0 7.996283039696884" Properties=species:S:1:pos:R:3:forces:R:3 energy=-3237.5713395221364 free_energy=-3237.5713395221364 pbc="F F F"
C        3.71691224       3.89374987       4.36873865      -0.49379721      -0.01077620       0.25619286
C        4.91370308       4.78138813       4.06643089       0.01383615      -0.21388280      -0.24529758
C        6.24068165       4.02471289       4.02689695       0.39191556       0.09216982      -0.27338922
H        3.19659315       3.58501200       3.46299494       0.01454755      -0.14161348      -0.06984606
H        3.00000000       4.42864693       4.99628304      -0.13520858      -0.07074891      -0.04226339
H        4.01734484       3.00000000       4.91180016      -0.08228505      -0.08869978       0.07844675
H        4.96176155       5.58698046       4.79688160       0.06379223       0.04575165       0.03704523
H        4.76768352       5.23271491       3.09163091      -0.07192811       0.45337480      -0.08276547
H        6.99225509       4.62093856       4.52747501       0.46806824       0.06595790       0.08378965
H        6.58771541       3.85351609       3.00000000      -0.10142976      -0.06206165       0.15214315
H        6.20602873       3.06136348       4.52721123      -0.06751095      -0.06947133       0.10594408
11
Lattice="10.012617331838007 0.0 0.0 0.0 8.59414312082243 0.0 0.0 0.0 7.990261741228771" Properties=species:S:1:pos:R:3:forces:R:3 energy=-3237.5889716715283 free_energy=-3237.5889716715283 pbc="F F F"
C        3.70909755       3.89615681       4.36730319       0.18604730      -0.14985113      -0.09617282
C        4.92700324       4.78063913       4.05275003      -0.43630093       0.15665627       0.39976266
C        6.25168077       4.03228764       4.01865582       0.39834082      -0.18220824       0.21623586
H        3.20266668       3.58007462       3.45356765      -0.01570258      -0.09376977       0.02369345
H        3.00000000       4.42892598       4.99026174      -0.29353750       0.10190563       0.07422721
H        4.01365306       3.00000000       4.91127007      -0.10954100       0.01916632       0.03375673
H        4.97402450       5.59414312       4.79553118       0.04074961      -0.29453525      -0.22731289
H        4.76926426       5.25220088       3.09196356      -0.04303671       0.37243420      -0.19457288
H        7.01261733       4.62623471       4.52622661       0.24471922      -0.06542742      -0.06930137
H        6.58773909       3.84968557       3.00000000       0.04699305      -0.09234551      -0.11804638
H        6.20553156       3.06185054       4.52767298      -0.01873126       0.22797494      -0.04226963
11
Lattice="10.036365725939865 0.0 0.0 0.0 8.589705748733998 0.0 0.0 0.0 7.991598718114567" Properties=species:S:1:pos:R:3:forces:R:3 energy=-3237.6070500530354 free_energy=-3237.6070500530354 pbc="F F F"
C        3.72132847       3.89463102       4.36860737      -0.14343917       0.03493787       0.02300680
C        4.93392467       4.78182021       4.05921375      -0.11965215       0.08513486      -0.14306641
C        6.27165020       4.03531733       4.02297809       0.12784350      -0.01823020       0.03972711
H        3.21303987       3.57459743       3.45605999       0.02095691      -0.06599149       0.02104492
H        3.00000000       4.43006406       4.99159872      -0.08030821      -0.02712186      -0.09423003
H        4.01502830       3.00000000       4.91518554      -0.02552799      -0.03929117       0.07939389
H        4.98805943       5.58970575       4.79269725       0.01415411      -0.08833785       0.04056661
H        4.77975617       5.26788278       3.09352993      -0.02263488       0.15745682       0.08007975
H        7.03636573       4.62717031       4.52842854       0.19176894      -0.04597007      -0.08720858
H        6.60192168       3.84445578       3.00000000       0.01525278      -0.04983625       0.00261066
H        6.21449394       3.07286451       4.53348433       0.02158636       0.05724936       0.03807536
11
Lattice="10.050448154007787 0.0 0.0 0.0 8.583160801109791 0.0 0.0 0.0 7.98809728796072" Properties=species:S:1:pos:R:3:forces:R:3 energy=-3237.61380496517 free_energy=-3237.61380496517 pbc="F F F"
C        3.72485875       3.89635713       4.36929099      -0.10788706      -0.11610497       0.03991557
C        4.93291487       4.78629131       4.05938352       0.17367554      -0.17129010      -0.00337008
C        6.28011682       4.03580217       4.02346787       0.00029421       0.24309564       0.00856379
H        3.21906407       3.57157230       3.45776105       0.01344775      -0.07608183      -0.00360524
H        3.00000000       4.42774241       4.98809729      -0.11459468       0.02541079      -0.05749582
H        4.01632536       3.00000000       4.92262387      -0.02286053       0.08186521      -0.00118609
H        4.99107228       5.58316080       4.79692673       0.02005196       0.03472911       0.17771451
H        4.78071074       5.28575248       3.10674147      -0.04832748       0.17052874      -0.11300337
H        7.05044815       4.62886831       4.52696571       0.07441631      -0.07616338      -0.14358553
H        6.60905157       3.84108840       3.00000000      -0.00447845      -0.05523301       0.03007849
H        6.21973689       3.08210808       4.54179792       0.01626227      -0.06075627       0.06597374
11
Lattice="10.060264722352619 0.0 0.0 0.0 8.576373169449091 0.0 0.0 0.0 7.982523400582743" Properties=species:S:1:pos:R:3:forces:R:3 energy=-3237.619798586259 free_energy=-3237.619798586259 pbc="F F F"
C        3.72789691       3.88979501       4.36854115      -0.10282734      -0.00677814      -0.06410551
C        4.93831779       4.77999989       4.05703656       0.09908617       0.03878963       0.06634140
C        6.28465408       4.03078295       4.02213068      -0.01762557       0.07441533       0.02463883
H        3.22424910       3.56114014       3.45674067       0.02398535      -0.07564951       0.00399306
H        3.00000000       4.42212968       4.98252340      -0.10863244       0.04970678      -0.05817538
H        4.01655954       3.00000000       4.92618227       0.02398432      -0.02379139       0.05197719
H        4.99528095       5.57637317       4.80402211       0.01693044      -0.09457871       0.03082540
H        4.78379202       5.28806946       3.10346518      -0.01781156       0.07786792       0.03560124
H        7.06026472       4.62121929       4.51652830       0.08312195      -0.01982045      -0.09032195
H        6.61315252       3.83123816       3.00000000      -0.02016792      -0.07770300       0.00271912
H        6.22494529       3.07622595       4.54774206       0.01995667       0.05754162      -0.00349336
11
Lattice="10.069956396614904 0.0 0.0 0.0 8.570039777335644 0.0 0.0 0.0 7.9790963197726725" Properties=species:S:1:pos:R:3:forces:R:3 energy=-3237.624100539575 free_energy=-3237.624100539575 pbc="F F F"
C        3.72963196       3.88797482       4.36786392      -0.01148198      -0.05399926      -0.00977320
C        4.94290444       4.77780390       4.05770570       0.00376856       0.09811795       0.05407158
C        6.28758603       4.03046819       4.02186438       0.07990086       0.09830880      -0.03506929
H        3.22885506       3.55516875       3.45650052       0.02451440      -0.08072729      -0.00422945
H        3.00000000       4.42162671       4.97909632      -0.09826824       0.04699878      -0.06511489
H        4.02208752       3.00000000       4.93159922      -0.01783823       0.03786241       0.00342757
H        4.99941055       5.57003978       4.80794399       0.02205506      -0.07940143       0.06627080
H        4.78304957       5.29694360       3.10933765       0.01531648       0.02104080       0.05207659
H        7.06995640       4.61934804       4.51089261       0.02130991      -0.01937765      -0.10629237
H        6.61551824       3.82477641       3.00000000      -0.03953291      -0.06670385       0.01088072
H        6.23135051       3.07931471       4.54984554       0.00025617      -0.00211927       0.03375192
11
Lattice="10.077022214328641 0.0 0.0 0.0 8.564023176458598 0.0 0.0 0.0 7.975892286993933" Properties=species:S:1:pos:R:3:forces:R:3 energy=-3237.627332833355 free_energy=-3237.627332833355 pbc="F F F"
C        3.73207837       3.88484842       4.36733698      -0.02876885       0.01195382      -0.00210718
C        4.94540720       4.77608360       4.05925029       0.04850769      -0.00176454       0.04343754
C        6.29133104       4.02899319       4.02159191       0.03204131       0.04103529      -0.05135874
H        3.23370505       3.54812718       3.45636744       0.02532966      -0.07306825      -0.01437154
H        3.00000000       4.42056875       4.97589229      -0.07598337       0.02578885      -0.08810776
H        4.02327713       3.00000000       4.93387817      -0.00125764       0.00236937       0.02901505
H        5.00320261       5.56402318       4.81034057       0.01758469      -0.01955275       0.12301027
H        4.78750736       5.29652695       3.11337060      -0.00373285       0.04899552       0.00152972
H        7.07702221       4.61674925       4.50364521       0.03384158       0.01657508      -0.07754450
H        6.61663956       3.81743798       3.00000000      -0.05265688      -0.06346884       0.00695231
H        6.23531081       3.07950048       4.55364983       0.00509479       0.01113628       0.02954478
11
Lattice="10.082714901214237 0.0 0.0 0.0 8.560830423858881 0.0 0.0 0.0 7.972100686528158" Properties=species:S:1:pos:R:3:forces:R:3 energy=-3237.6302541230166 free_energy=-3237.6302541230166 pbc="F F F"
C        3.73307043       3.88303723       4.36717761       0.01408802      -0.01517042      -0.01997922
C        4.94748929       4.77420621       4.06089823       0.03851664       0.08324671       0.02116552
C        6.29349244       4.02827932       4.02097007       0.03654039      -0.01511729      -0.01028763
H        3.23725879       3.54203031       3.45573080       0.03774125      -0.05953388      -0.00044447
H        3.00000000       4.41981713       4.97210069      -0.09571006       0.03653039      -0.07487052
H        4.02484894       3.00000000       4.93705733      -0.01011436       0.01201959       0.02503283
H        5.00740638       5.56083042       4.81613109       0.00172785      -0.06203660       0.07114230
H        4.78865705       5.29783707       3.11421017       0.00874499       0.01882114       0.07343443
H        7.08271490       4.61638142       4.49837358       0.00677025       0.01050544      -0.08533351
H        6.61516593       3.81121905       3.00000000      -0.04999864      -0.06013661      -0.01509022
H        6.23795880       3.07912336       4.55657838       0.01169367       0.05087157       0.01523045
11
Lattice="10.087168414985532 0.0 0.0 0.0 8.556456307199717 0.0 0.0 0.0 7.968566064037752" Properties=species:S:1:pos:R:3:forces:R:3 energy=-3237.6332317745723 free_energy=-3237.6332317745723 pbc="F F F"
C        3.73490406       3.88165895       4.36781926       0.03360397      -0.02196863      -0.01979458
C        4.94933291       4.77324757       4.06317134       0.06001914       0.05800951       0.02176642
C        6.29573176       4.02709916       4.02151068       0.03385139       0.04645640      -0.06808077
H        3.24282444       3.53719993       3.45613052       0.03081033      -0.05954712      -0.01239803
H        3.00000000       4.42012507       4.96856606      -0.10259441       0.03410458      -0.06997415
H        4.02606339       3.00000000       4.94081732      -0.01278843       0.02456506       0.02412776
H        5.00912125       5.55645631       4.82092714       0.00582965      -0.04211923       0.08753997
H        4.79170411       5.30045887       3.11855446       0.00207647       0.01710283       0.06511267
H        7.08716841       4.61647703       4.49368639       0.00075821       0.01510905      -0.08773669
H        6.61380074       3.80504143       3.00000000      -0.05611114      -0.04917463      -0.00321930
H        6.24209039       3.08202976       4.55918560       0.00454499      -0.02253770       0.06265668
11
Lattice="10.092137039547557 0.0 0.0 0.0 8.552267527458191 0.0 0.0 0.0 7.9655294271785735" Properties=species:S:1:pos:R:3:forces:R:3 energy=-3237.636161173859 free_energy=-3237.636161173859 pbc="F F F"
C        3.73793219       3.87903282       4.36811481       0.01039506       0.02319842      -0.01499645
C        4.95233592       4.77105548       4.06526200       0.07485688       0.04415548       0.05741787
C        6.29902296       4.02524240       4.02165162       0.00222337      -0.02062517      -0.02451355
H        3.24936936       3.53148963       3.45609275       0.02515957      -0.05890584      -0.02265657
H        3.00000000       4.41917612       4.96552943      -0.07909887       0.01519667      -0.08937073
H        4.02791501       3.00000000       4.94344336      -0.00270316      -0.00554687       0.04858725
H        5.01210231       5.55226753       4.82542396       0.00643999      -0.04408687       0.07983523
H        4.79501237       5.29906716       3.12240574      -0.00495218       0.04118027       0.03409050
H        7.09213704       4.61539969       4.48897483       0.00771262       0.02783057      -0.08540507
H        6.61265653       3.79849272       3.00000000      -0.05339769      -0.05513493      -0.00399537
H        6.24587740       3.08145918       4.56596796       0.01336449       0.03273837       0.02100687
11
Lattice="10.09617873737752 0.0 0.0 0.0 8.549250556406498 0.0 0.0 0.0 7.9623342680413245" Properties=species:S:1:pos:R:3:forces:R:3 energy=-3237.638823563743 free_energy=-3237.638823563743 pbc="F F F"
C        3.73958930       3.87800146       4.36818475       0.03222708      -0.04661123      -0.00409648
C        4.95448790       4.76972663       4.06744312       0.05597937       0.06640732       0.02396083
C        6.30071063       4.02417091       4.02150661       0.02252042       0.02084428      -0.01952462
H        3.25398761       3.52672570       3.45499892       0.03963236      -0.04938273       0.00358023
H        3.00000000       4.41842389       4.96233427      -0.09244946       0.02652721      -0.08561628
H        4.02936879       3.00000000       4.94861324      -0.01940642       0.03632951       0.01326379
H        5.01389194       5.54925056       4.82951833       0.00949813      -0.04415224       0.07495539
H        4.79589861       5.29938544       3.12458637       0.00567034       0.03234663       0.06353058
H        7.09617874       4.61616556       4.48440604      -0.01395028       0.01590037      -0.10074385
H        6.61049536       3.79289569       3.00000000      -0.05151655      -0.05293894      -0.01241326
H        6.24925936       3.08380317       4.56929224       0.01179498      -0.00527022       0.04310362
11
Lattice="10.09976096535265 0.0 0.0 0.0 8.545136941847325 0.0 0.0 0.0 7.958474476136637" Properties=species:S:1:pos:R:3:forces:R:3 energy=-3237.6417199163075 free_energy=-3237.6417199163075 pbc="F F F"
C        3.74138286       3.87523157       4.36875690       0.03293455      -0.01583236      -0.04277197
C        4.95624293       4.76746406       4.06977787       0.06708980       0.06040251       0.02860475
C        6.30237766       4.02184557       4.02186959       0.01825738      -0.00970507      -0.00929246
H        3.25953091       3.52107334       3.45477629       0.03752468      -0.04676428       0.00094185
H        3.00000000       4.41665861       4.95847448      -0.10995655       0.03797697      -0.07636799
H        4.02846590       3.00000000       4.95183392       0.00217541      -0.00159423       0.03961594
H        5.01586974       5.54513694       4.83372753       0.00971028      -0.04408404       0.07662631
H        4.79845616       5.29961120       3.12822558       0.00075787       0.03024288       0.06209308
H        7.09976097       4.61524659       4.47948439      -0.01504606       0.01981354      -0.10135267
H        6.60827384       3.78599182       3.00000000      -0.05470118      -0.05162894      -0.00446198
H        6.25301716       3.08304551       4.57449571       0.01125361       0.02117307       0.02636510
11
Lattice="10.104243070726985 0.0 0.0 0.0 8.54202659266901 0.0 0.0 0.0 7.9568970376923085" Properties=species:S:1:pos:R:3:forces:R:3 energy=-3237.644571665935 free_energy=-3237.644571665935 pbc="F F F"
C        3.74416589       3.87321165       4.36901767       0.05352899      -0.00112385       0.02522414
C        4.95914770       4.76595026       4.07202128       0.07339990       0.05528271       0.04341525
C        6.30507806       4.02031913       4.02236132       0.01083219      -0.00933647      -0.03701058
H        3.26672611       3.51686654       3.45529655       0.01734025      -0.06715123      -0.03573752
H        3.00000000       4.41643333       4.95497330      -0.09304166       0.02287538      -0.08941480
H        4.03120085       3.00000000       4.95689704      -0.01084739       0.02062780       0.02040320
H        5.01901969       5.54202659       4.83773551       0.00859948      -0.04604136       0.07484300
H        4.80185144       5.29966161       3.13175333      -0.00352181       0.03807702       0.05074503
H        7.10424307       4.61478953       4.47447643      -0.00907387       0.02862719      -0.09614505
H        6.60687344       3.78016638       3.00000000      -0.05627956      -0.04660493       0.00239341
H        6.25766093       3.08374785       4.57766139       0.00906355       0.00476773       0.04128394
11
Lattice="10.10831762561738 0.0 0.0 0.0 8.538679948327065 0.0 0.0 0.0 7.959420351900101" Properties=species:S:1:pos:R:3:forces:R:3 energy=-3237.6473175849565 free_energy=-3237.6473175849565 pbc="F F F"
C        3.74698069       3.87146705       4.36928413       0.00066114      -0.01109360      -0.03779717
C        4.96167745       4.76420601       4.07382119       0.07278132       0.06052816       0.03531784
C        6.30710812       4.01846160       4.02208950       0.01972616      -0.00782162      -0.00931338
H        3.27160490       3.51124739       3.45348022       0.04818948      -0.03959479       0.02064203
H        3.00000000       4.41560457       4.95147138      -0.08464492       0.01694550      -0.09669149
H        4.03210617       3.00000000       4.95942035      -0.00156651       0.00463270       0.03519222
H        5.02151714       5.53867995       4.84115199       0.01106153      -0.04442417       0.07457317
H        4.80422963       5.29962770       3.13428070      -0.00207866       0.03625681       0.05787677
H        7.10831763       4.61481750       4.46919205      -0.02099190       0.02075628      -0.10312930
H        6.60478255       3.77438547       3.00000000      -0.05148137      -0.05058229      -0.01310444
H        6.26180487       3.08380624       4.58147873       0.00834353       0.01439707       0.03643374
11
Lattice="10.111265499984617 0.0 0.0 0.0 8.535739487287522 0.0 0.0 0.0 7.963670222677231" Properties=species:S:1:pos:R:3:forces:R:3 energy=-3237.650076884859 free_energy=-3237.650076884859 pbc="F F F"
C        3.74828313       3.87000863       4.36974707       0.05355445      -0.04187905      -0.02269489
C        4.96341028       4.76285217       4.07614354       0.06888020       0.06383038       0.03372288
C        6.30843528       4.01698220       4.02246924       0.01514065      -0.02188760      -0.01574760
H        3.27723957       3.50675241       3.45368353       0.03722837      -0.04568668       0.00476641
H        3.00000000       4.41462002       4.94781896      -0.10944949       0.03199904      -0.08046534
H        4.03347249       3.00000000       4.96367022      -0.01282342       0.02649214       0.01982909
H        5.02339899       5.53573949       4.84516359       0.01140936      -0.04562190       0.07364066
H        4.80608189       5.30015853       3.13757778      -0.00222950       0.03628642       0.05951206
H        7.11126550       4.61479917       4.46432361      -0.01879212       0.02258964      -0.10189463
H        6.60205239       3.76858924       3.00000000      -0.05275965      -0.04717852      -0.00581665
H        6.26472786       3.08412874       4.58541346       0.00984131       0.02105610       0.03514799
11
Lattice="10.11545624295413 0.0 0.0 0.0 8.531960295763731 0.0 0.0 0.0 7.966498280532599" Properties=species:S:1:pos:R:3:forces:R:3 energy=-3237.652925593377 free_energy=-3237.652925593377 pbc="F F F"
C        3.75125797       3.86728608       4.36993803       0.05263512       0.02003314       0.01291326
C        4.96625644       4.76069463       4.07835763       0.07452190       0.05916679       0.03655687
C        6.31088982       4.01450276       4.02280737       0.01579976      -0.00046647      -0.03658674
H        3.28479517       3.50207004       3.45445130       0.01090292      -0.06562070      -0.04619316
H        3.00000000       4.41351859       4.94378796      -0.09441484       0.01935568      -0.08945275
H        4.03484863       3.00000000       4.96649828      -0.00259949      -0.00186152       0.04303271
H        5.02654103       5.53196030       4.84895998       0.01094008      -0.04485822       0.07462248
H        4.80914136       5.29970240       3.14083720      -0.00382390       0.03878466       0.05710852
H        7.11545624       4.61380223       4.45923486      -0.01834714       0.02510251      -0.10120177
H        6.60043966       3.76226229       3.00000000      -0.05321237      -0.04601715      -0.00237412
H        6.26924009       3.08447042       4.58884741       0.00759795      -0.00361896       0.05157475
11
Lattice="10.11916115963995 0.0 0.0 0.0 8.529094012704611 0.0 0.0 0.0 7.971036831505537" Properties=species:S:1:pos:R:3:forces:R:3 energy=-3237.6558059294325 free_energy=-3237.6558059294325 pbc="F F F"
C        3.75404764       3.86603717       4.37022858       0.01385284      -0.03772081      -0.02964024
C        4.96873615       4.75937633       4.08023659       0.07711649       0.06471705       0.03308222
C        6.31290428       4.01308784       4.02259550       0.01114798      -0.03208727      -0.00101956
H        3.28959292       3.49655216       3.45233964       0.04927095      -0.03641838       0.02707490
H        3.00000000       4.41287635       4.94029669      -0.08884649       0.01661072      -0.09603687
H        4.03668266       3.00000000       4.97103683      -0.01148181       0.02434175       0.02088330
H        5.02920483       5.52909401       4.85242718       0.01225487      -0.04457396       0.07453073
H        4.81159027       5.30014366       3.14367225      -0.00375828       0.03920133       0.05838111
H        7.11916116       4.61382687       4.45387629      -0.01911864       0.02611450      -0.10235048
H        6.59824139       3.75687269       3.00000000      -0.04946738      -0.05137110      -0.01228886
H        6.27314123       3.08446800       4.59360230       0.00902934       0.03118614       0.02738371
11
Lattice="10.122261443083877 0.0 0.0 0.0 8.525641801086188 0.0 0.0 0.0 7.974117866374493" Properties=species:S:1:pos:R:3:forces:R:3 energy=-3237.6585623909664 free_energy=-3237.6585623909664 pbc="F F F"
C        3.75576779       3.86393061       4.37065836       0.03289441      -0.02761332      -0.03605343
C        4.97068340       4.75747559       4.08246721       0.07324767       0.06540096       0.03226578
C        6.31427103       4.01087709       4.02295830       0.01831043       0.00448114      -0.03144736
H        3.29518113       3.49159548       3.45270586       0.03962436      -0.03945326       0.00852522
H        3.00000000       4.41125858       4.93659708      -0.10542311       0.02904700      -0.08599102
H        4.03660408       3.00000000       4.97411787      -0.00137705       0.00753836       0.03503703
H        5.03140900       5.52564180       4.85627068       0.01205318      -0.04528939       0.07372116
H        4.81351875       5.30002926       3.14688704      -0.00387749       0.03964229       0.05955946
H        7.12226144       4.61327171       4.44895437      -0.02307685       0.02376987      -0.10519961
H        6.59561833       3.75059187       3.00000000      -0.05101728      -0.04806415      -0.00365189
H        6.27612250       3.08570617       4.59690653       0.00864173      -0.00945958       0.05323469
11
Lattice="10.125972584729785 0.0 0.0 0.0 8.522532923397542 0.0 0.0 0.0 7.9781322913541795" Properties=species:S:1:pos:R:3:forces:R:3 energy=-3237.6614559051627 free_energy=-3237.6614559051627 pbc="F F F"
C        3.75802869       3.86185249       4.37059750       0.07865205      -0.00488162       0.03577549
C        4.97327872       4.75595494       4.08457290       0.07092178       0.06341934       0.03074577
C        6.31648585       4.00918669       4.02307416       0.00800407      -0.03193671      -0.00709261
H        3.30262704       3.48771390       3.45336822       0.00795272      -0.06747986      -0.04825702
H        3.00000000       4.41057900       4.93252662      -0.10087756       0.02188716      -0.08886078
H        4.03901686       3.00000000       4.97813229      -0.01364197       0.02234881       0.02249444
H        5.03430557       5.52253292       4.85991569       0.01111279      -0.04542518       0.07525964
H        4.81617136       5.30028514       3.14999996      -0.00423560       0.04060829       0.05922894
H        7.12597258       4.61294944       4.44379405      -0.02017599       0.02767283      -0.10421529
H        6.59362732       3.74491694       3.00000000      -0.05004252      -0.05215633      -0.00068624
H        6.27989832       3.08563268       4.60230664       0.01233031       0.02594348       0.02560768
11
Lattice="10.129761529063577 0.0 0.0 0.0 8.518854020413876 0.0 0.0 0.0 7.980723536230564" Properties=species:S:1:pos:R:3:forces:R:3 energy=-3237.664295693093 free_energy=-3237.664295693093 pbc="F F F"
C        3.76124337       3.85960239       4.37105910       0.00273012      -0.00887100      -0.05388785
C        4.97581795       4.75387117       4.08640552       0.07856643       0.06695610       0.02740523
C        6.31853840       4.00682763       4.02300314       0.01348138      -0.00147355      -0.02149123
H        3.30764923       3.48128078       3.45124896       0.04799498      -0.03116936       0.02901639
H        3.00000000       4.40916707       4.92886301      -0.08789198       0.01329235      -0.09855069
H        4.04004443       3.00000000       4.98072354       0.00000432      -0.00595532       0.04566980
H        5.03711699       5.51885402       4.86329552       0.01212772      -0.04369810       0.07569765
H        4.81876435       5.29998126       3.15281869      -0.00506163       0.04054441       0.06057094
H        7.12976153       4.61221220       4.43833874      -0.02420880       0.02518690      -0.10620296
H        6.59164131       3.73857264       3.00000000      -0.04878541      -0.05150106      -0.00464207
H        6.28382834       3.08630831       4.60517020       0.01104296      -0.00331135       0.04641477
11