11
Lattice="10.007764609999999 0.0 0.0 0.0 8.77316382 0.0 0.0 0.0 8.38641398" Properties=species:S:1:pos:R:3:forces:R:3 energy=-3237.3857730557284 free_energy=-3237.3857730557284 pbc="F F F"
C        3.86639505       4.05630887       4.33435334      -1.76253986       0.42461324      -0.08133450
C        5.03699843       4.95528801       3.98260653      -0.24714488       1.33620596       0.37348962
C        6.34487427       4.21728567       3.97218668       1.72045290      -0.10864019      -0.42430133
H        3.52733911       4.24065195       5.38641398       0.29676151      -0.59909773      -0.72528297
H        3.00000000       4.32364981       3.67187259       0.43925112      -0.29910541       0.65013301
H        4.08651536       3.00000000       4.13048416      -0.16156271       0.20618401       0.34339961
H        5.11315464       5.77316382       4.73655459      -0.24519730      -0.29577255      -0.73123515
H        4.85861071       5.42609057       3.00000000       0.08648770      -0.13129783       0.42896694
H        6.90905520       4.48886441       3.03759963      -0.27113217      -0.63046634       0.72155637
H        7.00776461       4.52355731       4.81117871      -0.41015267      -0.39544111      -0.33833086
H        6.15440179       3.12697620       4.03471677       0.55477655       0.49281824      -0.21706083
11
Lattice="9.988175308801278 0.0 0.0 0.0 8.75653740608842 0.0 0.0 0.0 8.36207924196897" Properties=species:S:1:pos:R:3:forces:R:3 energy=-3237.486368087944 free_energy=-3237.486368087944 pbc="F F F"
C        3.83412362       4.04951936       4.32578818      -0.21883360       0.56217474      -0.20502624
C        5.02580684       4.96625587       3.98324450      -0.23307216      -0.33343506      -0.23982492
C        6.34706692       4.20942308       3.96733895       0.58748746       0.09642416      -0.67142153
H        3.52303656       4.22289973       5.36207924      -0.01545589      -0.44480002      -0.09342995
H        3.00000000       4.31645650       3.67160967      -0.22583997      -0.15035033       0.18273015
H        4.07720131       3.00000000       4.13400545      -0.18386151       0.12993798       0.23465882
H        5.10352607       5.75653741       4.71134465      -0.18638974       0.54575187       0.09297311
H        4.85463293       5.41735925       3.00000000       0.02526762       0.03388605       0.20577960
H        6.89209833       4.46641179       3.03328055      -0.07108922      -0.48453510       0.48881626
H        6.98817531       4.50434193       4.79416670       0.11578633      -0.13613799       0.19515359
H        6.15502948       3.13126674       4.03039028       0.40600055       0.18108390      -0.19040909
11
Lattice="9.996429956056222 0.0 0.0 0.0 8.767112551571437 0.0 0.0 0.0 8.34746779846428" Properties=species:S:1:pos:R:3:forces:R:3 energy=-3237.522053073524 free_energy=-3237.522053073524 pbc="F F F"
C        3.83860496       4.05757191       4.31323134      -0.19831681      -0.14219540      -0.08926173
C        5.02597415       4.95460250       3.96881263       0.19436634       0.36937332       0.60095251
C        6.35893842       4.20551982       3.95146839       0.13816857      -0.02985120       0.07007597
H        3.52271734       4.20070706       5.34746780      -0.00572041      -0.24498054       0.06596145
H        3.00000000       4.30200496       3.66929890      -0.36259970      -0.00387901      -0.00468258
H        4.07875850       3.00000000       4.13561720      -0.17294540       0.23239705       0.15835381
H        5.10478645       5.76711255       4.70773526      -0.19791901      -0.05329337      -0.39960828
H        4.86278662       5.41155162       3.00000000      -0.04881588       0.15001252      -0.17584310
H        6.89034187       4.44795726       3.03209526       0.27320367      -0.26907769      -0.04620079
H        6.99642996       4.48912951       4.79087968       0.03425367      -0.07371148       0.03409050
H        6.17101745       3.13036861       4.02268421       0.34632510       0.06520572      -0.21383774
11
Lattice="10.013906369455203 0.0 0.0 0.0 8.755720904411383 0.0 0.0 0.0 8.352072212569695" Properties=species:S:1:pos:R:3:forces:R:3 energy=-3237.5428962289307 free_energy=-3237.5428962289307 pbc="F F F"
C        3.84746300       4.04415005       4.31201914      -0.32121068       0.33109641       0.17527361
C        5.03738097       4.94950005       3.98324442       0.25682056      -0.10867059      -0.39699084
C        6.38247348       4.19542868       3.95866552      -0.29259896      -0.00988007      -0.09345276
H        3.53189083       4.17743736       5.35207221      -0.00179869      -0.20761472      -0.05652382
H        3.00000000       4.28678686       3.67092411      -0.19119056      -0.00793072       0.05965692
H        4.08727818       3.00000000       4.14526673      -0.04357675      -0.18567179       0.01483940
H        5.11309768       5.75572090       4.70065584      -0.15337461       0.34473935       0.07492474
H        4.87498811       5.40853767       3.00000000       0.02982643      -0.04183111       0.21183646
H        6.91130518       4.42864253       3.03454218       0.23745149      -0.19193187      -0.00820331
H        7.01390637       4.47214773       4.79522774       0.19183286       0.01432646       0.19767344
H        6.19530664       3.12022798       4.02346831       0.28781918       0.06336859      -0.17903376
11
Lattice="10.02902045706664 0.0 0.0 0.0 8.776318645419188 0.0 0.0 0.0 8.336777858160715" Properties=species:S:1:pos:R:3:forces:R:3 energy=-3237.55793775862 free_energy=-3237.55793775862 pbc="F F F"
C        3.84801556       4.04980197       4.30376717       0.09978475       0.16915840      -0.24103972
C        5.05452191       4.95601909       3.96729281      -0.22307467       0.03897989       0.36490506
C        6.39018187       4.20067072       3.94679378       0.12285960       0.13610035       0.02482444
H        3.53933135       4.17203670       5.33677786      -0.07753238      -0.09335055       0.23945363
H        3.00000000       4.28876105       3.66147831      -0.15149854       0.02950351       0.06467199
H        4.08969471       3.00000000       4.13689202      -0.07001127      -0.00758306       0.01279039
H        5.11263849       5.77631865       4.69334490      -0.08289777      -0.07068514      -0.22104433
H        4.88172852       5.41996560       3.00000000       0.02513981       0.03758039      -0.13702786
H        6.92820597       4.42610313       3.02145653       0.16407898      -0.16893187       0.09107810
H        7.02902046       4.47709499       4.79078150       0.00104424      -0.04443924      -0.04705966
H        6.21423667       3.12696612       4.01026276       0.19210711      -0.02633242      -0.15155208
11
Lattice="10.041964425243481 0.0 0.0 0.0 8.776647510321446 0.0 0.0 0.0 8.348466422133427" Properties=species:S:1:pos:R:3:forces:R:3 energy=-3237.5655356662724 free_energy=-3237.5655356662724 pbc="F F F"
C        3.85486940       4.05532863       4.30313202      -0.00274797      -0.00593818       0.17597929
C        5.06620239       4.95767426       3.97552983      -0.42838335      -0.05837429      -0.22083741
C        6.39771937       4.20332915       3.94806106       0.27236223       0.04872161       0.13651474
H        3.54202613       4.16484211       5.34846642       0.03083811      -0.07845762      -0.11164211
H        3.00000000       4.28862287       3.66647147      -0.09307807       0.08510376       0.05569915
H        4.08971524       3.00000000       4.13866888      -0.04510518       0.09066457      -0.00848785
H        5.11528273       5.77664751       4.68784457      -0.02029415       0.14918935       0.03388914
H        4.89339286       5.42298353       3.00000000       0.06241665      -0.06564167       0.08155584
H        6.94234767       4.42089163       3.02588367       0.12801510      -0.10138097       0.04381284
H        7.04196443       4.47333013       4.79108447      -0.02130572      -0.02301499      -0.04867479
H        6.23110692       3.12855475       4.00926729       0.11728257      -0.04087157      -0.13780886
11
Lattice="10.046143906660422 0.0 0.0 0.0 8.785192640812703 0.0 0.0 0.0 8.346487227551918" Properties=species:S:1:pos:R:3:forces:R:3 energy=-3237.5718181927514 free_energy=-3237.5718181927514 pbc="F F F"
C        3.86055388       4.05211790       4.30415472      -0.25609070       0.04612904       0.01800498
C        5.06204517       4.95212915       3.97580648       0.07594407       0.20003796      -0.01948270
C        6.40617207       4.20034253       3.94923967      -0.01711619      -0.02199990      -0.03129106
H        3.54943453       4.15320112       5.34648723      -0.00178734      -0.02947372       0.02581381
H        3.00000000       4.28749076       3.66851652       0.01246762       0.05859678       0.13954751
H        4.08889836       3.00000000       4.13840895       0.01672299      -0.03791510      -0.05780186
H        5.11901372       5.78519264       4.68748794      -0.07331450      -0.14024925      -0.16011022
H        4.90482795       5.41706567       3.00000000      -0.01945988      -0.06194542       0.01394184
H        6.95572422       4.41354807       3.02871269       0.07867613      -0.03895904       0.03685282
H        7.04614391       4.46632409       4.78778506       0.08655730       0.04626095       0.14063609
H        6.24264048       3.12392557       4.00256667       0.09740052      -0.02048230      -0.10611118
11
Lattice="10.051565586127385 0.0 0.0 0.0 8.783363612683125 0.0 0.0 0.0 8.345227494560461" Properties=species:S:1:pos:R:3:forces:R:3 energy=-3237.5764998792574 free_energy=-3237.5764998792574 pbc="F F F"
C        3.86088168       4.05302358       4.30250173      -0.06709667      -0.00026220       0.02905620
C        5.06418094       4.95682155       3.97083695       0.05688679      -0.22035480       0.11956707
C        6.40946336       4.20035082       3.94819511       0.09424305       0.14859647       0.02660433
H        3.55214805       4.14912622       5.34522749       0.01783175      -0.02762609       0.05439310
H        3.00000000       4.29212878       3.67538262      -0.07660771       0.07220966       0.04800984
H        4.09175854       3.00000000       4.13036916      -0.01392382       0.03887500      -0.04672618
H        5.11576789       5.78336361       4.68016518      -0.03289587       0.03401368      -0.03264719
H        4.90583151       5.41342434       3.00000000      -0.04014155       0.05295459      -0.21498594
H        6.96538310       4.41280914       3.02929574       0.03894466      -0.01932073       0.07335083
H        7.05156559       4.46901847       4.79140345      -0.02710483      -0.01201826       0.01115926
H        6.25113742       3.12483283       3.99483398       0.04986423      -0.06706732      -0.06778121
11
Lattice="10.054744309283837 0.0 0.0 0.0 8.785249794216462 0.0 0.0 0.0 8.35436796183167" Properties=species:S:1:pos:R:3:forces:R:3 energy=-3237.5801413036183 free_energy=-3237.5801413036183 pbc="F F F"
C        3.86331340       4.05146071       4.30822075      -0.03470289       0.03848573       0.10931735
C        5.07018000       4.95410003       3.97883403      -0.08243394      -0.12767214      -0.18619865
C        6.41438214       4.19896315       3.95361175       0.09677017       0.04566360       0.13290590
H        3.55716557       4.14491731       5.35436796       0.04355637      -0.04596852      -0.01727150
H        3.00000000       4.29713278       3.68594886      -0.04538378       0.05841057       0.04779312
H        4.09587167       3.00000000       4.13085806      -0.04076456       0.02869441      -0.04738112
H        5.11393715       5.78524979       4.68216242       0.00830318       0.03264397      -0.00277338
H        4.90963125       5.41090465       3.00000000       0.00261759      -0.05149589       0.00058106
H        6.97460580       4.40970101       3.03977124       0.05187932       0.03308614      -0.00129787
H        7.05474431       4.46623612       4.79901094      -0.02964239      -0.02778210       0.01120114
H        6.26015900       3.12013667       3.99404352       0.02980094       0.01593418      -0.04687611
11
Lattice="10.054850375749215 0.0 0.0 0.0 8.786334006430216 0.0 0.0 0.0 8.357085728742462" Properties=species:S:1:pos:R:3:forces:R:3 energy=-3237.5826398790773 free_energy=-3237.5826398790773 pbc="F F F"
C        3.86434716       4.04972091       4.31121924       0.00929954       0.03384515       0.05657935
C        5.07229491       4.94889600       3.97993320      -0.07654178       0.05781937      -0.10269049
C        6.41748540       4.19720805       3.95668763       0.09411144       0.03492606       0.03852009
H        3.56470991       4.13936746       5.35708573       0.01707752      -0.03479279       0.05293601
H        3.00000000       4.29823452       3.69244895      -0.05477775       0.07050457       0.04517446
H        4.09513094       3.00000000       4.12909599      -0.03696808      -0.01624520      -0.05446540
H        5.11670115       5.78633401       4.68382236      -0.00245011      -0.09437574      -0.11087228
H        4.91123486       5.40418838       3.00000000       0.00720515      -0.05824943       0.01062220
H        6.98160999       4.40857853       3.04390541       0.02167292       0.04799860       0.03101921
H        7.05485038       4.46132859       4.80263366       0.00301034      -0.00826254       0.06687342
H        6.26488784       3.11936809       3.99128786       0.01836091      -0.03316803      -0.03369653
11
Lattice="10.05530264834319 0.0 0.0 0.0 8.786290252895661 0.0 0.0 0.0 8.359323700614553" Properties=species:S:1:pos:R:3:forces:R:3 energy=-3237.58534403353 free_energy=-3237.58534403353 pbc="F F F"
C        3.86541901       4.05113230       4.31177038       0.01773092      -0.00405180       0.04328186
C        5.07310536       4.95046419       3.97899860      -0.03828645      -0.09122026      -0.09092596
C        6.42001677       4.19846923       3.95734327       0.07487786       0.01492620       0.06378969
H        3.56940000       4.13696140       5.35932370       0.01900591      -0.03337041       0.03938199
H        3.00000000       4.30323857       3.69548670      -0.05314373       0.06847366       0.05731628
H        4.09315722       3.00000000       4.12448377      -0.03802165       0.03432168      -0.04600474
H        5.11764164       5.78629025       4.67977704       0.00042717      -0.01217633      -0.04203584
H        4.91279749       5.40255575       3.00000000      -0.00461216      -0.02874378      -0.05861654
H        6.98496577       4.41427229       3.04595465       0.02840738       0.04617239       0.04116794
H        7.05530265       4.46018940       4.80742637      -0.02407758      -0.01962731       0.02597243
H        6.26887206       3.11850629       3.98693546       0.01769228       0.02529598      -0.03332707
11
Lattice="10.056266787000045 0.0 0.0 0.0 8.785702070535727 0.0 0.0 0.0 8.36480783457337" Properties=species:S:1:pos:R:3:forces:R:3 energy=-3237.5876867014485 free_energy=-3237.5876867014485 pbc="F F F"
C        3.86712472       4.04989367       4.31513202      -0.00950191       0.02429330       0.08974204
C        5.07440819       4.94809853       3.98148370      -0.02175713      -0.07930267      -0.16222584
C        6.42272646       4.19727832       3.96088386       0.04650784       0.06526190       0.09727319
H        3.57338634       4.13346968       5.36480783       0.03697272      -0.04163822       0.00099676
H        3.00000000       4.30611990       3.70310373      -0.05347575       0.06897313       0.05336912
H        4.09186364       3.00000000       4.12304375      -0.03080531       0.00451410      -0.04681470
H        5.11857972       5.78570207       4.67885143       0.00169885       0.00672490      -0.01923210
H        4.91413804       5.39889961       3.00000000       0.00306874      -0.05537124      -0.01312593
H        6.98791729       4.41612397       3.05195345       0.05383099       0.05976277       0.00845157
H        7.05626679       4.45711767       4.81316926      -0.03238094      -0.02065200       0.01895859
H        6.27287344       3.11887139       3.98599415       0.00584186      -0.03256593      -0.02739275
11
Lattice="10.056476081259593 0.0 0.0 0.0 8.786590626777716 0.0 0.0 0.0 8.368083676047902" Properties=species:S:1:pos:R:3:forces:R:3 energy=-3237.5900910025175 free_energy=-3237.5900910025175 pbc="F F F"
C        3.86844965       4.04961326       4.31846397       0.00828283       0.01412665       0.04023995
C        5.07575128       4.94645898       3.98327921      -0.00295579      -0.03054702      -0.15183714
C        6.42522063       4.19718800       3.96427451       0.02777600       0.00418526       0.02500465
H        3.57950728       4.13023610       5.36808368       0.02317250      -0.03956673       0.04916279
H        3.00000000       4.30975656       3.71004721      -0.05421275       0.06970946       0.05517768
H        4.09059808       3.00000000       4.12132999      -0.03046025       0.00714431      -0.04544060
H        5.12035012       5.78659063       4.67991479      -0.00419188      -0.02751989      -0.05256375
H        4.91609068       5.39527020       3.00000000       0.00296649      -0.06296469       0.00896336
H        6.99255025       4.42006395       3.05595208       0.03014705       0.04872277       0.04763493
H        7.05647608       4.45422990       4.81755429      -0.01544993      -0.01209664       0.05191954
H        6.27593205       3.11664911       3.98465866       0.01492568       0.02880660      -0.02826151
11
Lattice="10.056979569144591 0.0 0.0 0.0 8.786419375182696 0.0 0.0 0.0 8.370491156079154" Properties=species:S:1:pos:R:3:forces:R:3 energy=-3237.592624652105 free_energy=-3237.592624652105 pbc="F F F"
C        3.86994962       4.04968381       4.31937685       0.00940830      -0.00191737       0.04625048
C        5.07737915       4.94532069       3.98266191      -0.00591087      -0.05042684      -0.11808026
C        6.42697710       4.19726452       3.96520788       0.05336821       0.06348330       0.09446259
H        3.58447642       4.12723750       5.37049116       0.02913205      -0.04077596       0.03880335
H        3.00000000       4.31374292       3.71483802      -0.05468597       0.06769874       0.05513729
H        4.08979496       3.00000000       4.11766348      -0.03485240       0.01919841      -0.04268791
H        5.12120170       5.78641938       4.67718189      -0.00084890      -0.00950838      -0.03618979
H        4.91763205       5.39218560       3.00000000      -0.00242764      -0.04861380      -0.03528062
H        6.99610250       4.42521994       3.06078174       0.05242576       0.05207190       0.01290502
H        7.05697957       4.45209672       4.82201756      -0.04965282      -0.02157682       0.01629997
H        6.27962792       3.11829510       3.98158424       0.00404435      -0.02963309      -0.03162009
11
Lattice="10.05608861754094 0.0 0.0 0.0 8.785811158211537 0.0 0.0 0.0 8.374753722645622" Properties=species:S:1:pos:R:3:forces:R:3 energy=-3237.594977862536 free_energy=-3237.594977862536 pbc="F F F"
C        3.87159871       4.04893548       4.32175293      -0.00544093       0.01278420       0.07332306
C        5.07893636       4.94347458       3.98388962       0.00291371      -0.03694165      -0.14228088
C        6.42944486       4.19680243       3.96778099       0.02986562       0.01459551       0.01925775
H        3.58923619       4.12410331       5.37475372       0.03921463      -0.04570602       0.01194906
H        3.00000000       4.31704007       3.72112827      -0.05029030       0.06523893       0.05707146
H        4.08872671       3.00000000       4.11574209      -0.03233752       0.00518699      -0.04369912
H        5.12263527       5.78581116       4.67669665      -0.00118915      -0.00456470      -0.03185306
H        4.91904404       5.38915385       3.00000000       0.00067864      -0.05906972      -0.01884013
H        7.00120698       4.42804831       3.06430560       0.02911609       0.04665117       0.04841038
H        7.05608862       4.44923054       4.82585240      -0.02287817      -0.01453063       0.05497383
H        6.28261923       3.11623184       3.97917332       0.01034752       0.01635583      -0.02831226
11
Lattice="10.05602183426176 0.0 0.0 0.0 8.78586348363907 0.0 0.0 0.0 8.377871418096404" Properties=species:S:1:pos:R:3:forces:R:3 energy=-3237.597499144945 free_energy=-3237.597499144945 pbc="F F F"
C        3.87304296       4.04871815       4.32463851       0.01243538       0.00446364       0.04080545
C        5.08050338       4.94219916       3.98532211       0.00047696      -0.01521122      -0.15076554
C        6.43133708       4.19678160       3.97070261       0.03941667       0.04345536       0.07751770
H        3.59543910       4.12105465       5.37787142       0.02918260      -0.04484628       0.04972218
H        3.00000000       4.32065198       3.72824421      -0.05509420       0.06684988       0.05363858
H        4.08740940       3.00000000       4.11403784      -0.03164222       0.00863713      -0.04367242
H        5.12414438       5.78586348       4.67711491      -0.00397365      -0.01002730      -0.04196186
H        4.92063416       5.38629940       3.00000000       0.00274657      -0.06626473      -0.00008436
H        7.00499893       4.43249187       3.07096410       0.04883896       0.05175431       0.01832065
H        7.05602183       4.44672418       4.83234346      -0.04754407      -0.02190147       0.02775383
H        6.28577583       3.11707614       3.97798233       0.00515700      -0.01690933      -0.03127421
11
Lattice="10.055335941262587 0.0 0.0 0.0 8.78579410383255 0.0 0.0 0.0 8.380808310307842" Properties=species:S:1:pos:R:3:forces:R:3 energy=-3237.5998819555075 free_energy=-3237.5998819555075 pbc="F F F"
C        3.87461921       4.04864667       4.32605644       0.01001568       0.00225503       0.04503660
C        5.08218172       4.94155112       3.98514802       0.00188804      -0.04454482      -0.12007615
C        6.43343818       4.19691985       3.97220707       0.03404236       0.02104455       0.03039225
H        3.60047497       4.11820308       5.38080831       0.03493197      -0.04672798       0.03563306
H        3.00000000       4.32452249       3.73336003      -0.04929861       0.06286321       0.05853566
H        4.08639770       3.00000000       4.11105490      -0.03273457       0.01786423      -0.04151338
H        5.12519026       5.78579410       4.67573710      -0.00171146       0.00190183      -0.03654274
H        4.92205754       5.38324570       3.00000000      -0.00081976      -0.05086163      -0.03323050
H        7.00961865       4.43576338       3.07374480       0.03272810       0.04710053       0.04523005
H        7.05533594       4.44436978       4.83569554      -0.03600836      -0.01876184       0.04551193
H        6.28845206       3.11633151       3.97495768       0.00696666       0.00786690      -0.02897676
11
Lattice="10.055038108028516 0.0 0.0 0.0 8.78589494744093 0.0 0.0 0.0 8.384824743219" Properties=species:S:1:pos:R:3:forces:R:3 energy=-3237.602284837392 free_energy=-3237.602284837392 pbc="F F F"
C        3.87628906       4.04790056       4.32851407       0.00751467       0.01519476       0.06637111
C        5.08389830       4.93989916       3.98642793      -0.00048435      -0.01808214      -0.13312423
C        6.43559507       4.19647869       3.97478342       0.01127255       0.01893115       0.05241986
H        3.60577915       4.11483687       5.38482474       0.04114657      -0.04971176       0.02221068
H        3.00000000       4.32763701       3.74033598      -0.05049397       0.06301691       0.05454755
H        4.08538895       3.00000000       4.10932195      -0.03028945       0.00586302      -0.04390272
H        5.12672123       5.78589495       4.67548707      -0.00322876      -0.00718281      -0.04230269
H        4.92361145       5.38049535       3.00000000       0.00249578      -0.06272084      -0.01413897
H        7.01326041       4.43935880       3.07973090       0.05187103       0.05243337       0.01519846
H        7.05503811       4.44112555       4.84048027      -0.03496770      -0.01566185       0.05471247
H        6.29146513       3.11610153       3.97350797       0.00516380      -0.00207982      -0.03199143
11
Lattice="10.055138158150061 0.0 0.0 0.0 8.7858327909723 0.0 0.0 0.0 8.388119434662443" Properties=species:S:1:pos:R:3:forces:R:3 energy=-3237.604668864398 free_energy=-3237.604668864398 pbc="F F F"
C        3.87784548       4.04763360       4.33122846       0.01404671       0.00904658       0.04101769
C        5.08539105       4.93879197       3.98772347      -0.00171840      -0.01435256      -0.14844978
C        6.43720842       4.19627446       3.97742436       0.06275201       0.04078978       0.04665098
H        3.61185830       4.11172350       5.38811943       0.03449975      -0.05041647       0.04444564
H        3.00000000       4.33103966       3.74697592      -0.04819876       0.06210691       0.05764650
H        4.08430981       3.00000000       4.10739430      -0.02999359       0.01141857      -0.04227174
H        5.12783097       5.78583279       4.67535044      -0.00289225      -0.00169914      -0.04190755
H        4.92523590       5.37742327       3.00000000       0.00242271      -0.06516969      -0.00363055
H        7.01811422       4.44247146       3.08359493       0.02582072       0.04461388       0.05492804
H        7.05513816       4.43876568       4.84638378      -0.05929025      -0.02580171       0.02222139
H        6.29410362       3.11604120       3.97194987       0.00255144      -0.01053617      -0.03065070
11
Lattice="10.053591201551303 0.0 0.0 0.0 8.786025734932728 0.0 0.0 0.0 8.39063021326838" Properties=species:S:1:pos:R:3:forces:R:3 energy=-3237.6071856865133 free_energy=-3237.6071856865133 pbc="F F F"
C        3.87948582       4.04736415       4.33257530       0.01808779       0.00714005       0.04474930
C        5.08700278       4.93800195       3.98747557       0.00698614      -0.03765762      -0.11082116
C        6.43958913       4.19610663       3.97886408      -0.01544940      -0.00179362       0.04537789
H        3.61703977       4.10868962       5.39063021       0.03945054      -0.05250487       0.04104078
H        3.00000000       4.33439905       3.75270596      -0.04829644       0.06147408       0.05443095
H        4.08345950       3.00000000       4.10434450      -0.03097686       0.01760165      -0.04028373
H        5.12915561       5.78602573       4.67391561      -0.00251674       0.00066858      -0.04204653
H        4.92663630       5.37432396       3.00000000      -0.00087994      -0.05070080      -0.03820223
H        7.02189396       4.44671954       3.08928376       0.05395938       0.05011187       0.00759724
H        7.05359120       4.43580990       4.84910553      -0.03027085      -0.01611556       0.07239587
H        6.29640711       3.11493711       3.96922349       0.00990620       0.02177625      -0.03423845
11
Lattice="10.05292002344881 0.0 0.0 0.0 8.785944702418156 0.0 0.0 0.0 8.395014540948253" Properties=species:S:1:pos:R:3:forces:R:3 energy=-3237.6096289137818 free_energy=-3237.6096289137818 pbc="F F F"
C        3.88118004       4.04658500       4.33534682       0.00718595       0.02013815       0.06311592
C        5.08868076       4.93633491       3.98910407      -0.00497663      -0.00825667      -0.14305609
C        6.44109448       4.19545374       3.98170863       0.05836177       0.05724961       0.04387201
H        3.62239171       4.10523206       5.39501454       0.04498781      -0.05518107       0.02320896
H        3.00000000       4.33724594       3.75953339      -0.04294986       0.05997307       0.05769042
H        4.08242569       3.00000000       4.10294274      -0.02767283       0.00588877      -0.04209830
H        5.13041950       5.78594470       4.67401125      -0.00227564      -0.00514559      -0.04653385
H        4.92792944       5.37152470       3.00000000       0.00410036      -0.06481254      -0.00837623
H        7.02723362       4.44931676       3.09329077       0.02133867       0.04216908       0.05956344
H        7.05292002       4.43274773       4.85615105      -0.05721469      -0.02603374       0.02762790
H        6.29953543       3.11561096       3.96804513      -0.00088482      -0.02598928      -0.03501418
11
Lattice="10.05133075500284 0.0 0.0 0.0 8.78592340493352 0.0 0.0 0.0 8.398253073640447" Properties=species:S:1:pos:R:3:forces:R:3 energy=-3237.612348882003 free_energy=-3237.612348882003 pbc="F F F"
C        3.88266642       4.04634613       4.33800731       0.02626709       0.00708683       0.04364771
C        5.09008083       4.93542053       3.99025829       0.00372279      -0.02187622      -0.14883840
C        6.44331751       4.19534425       3.98436303      -0.01238585      -0.00059992       0.05946132
H        3.62875697       4.10187619       5.39825307       0.03840765      -0.05521100       0.04638555
H        3.00000000       4.34035423       3.76665705      -0.04814066       0.06249094       0.05410890
H        4.08147775       3.00000000       4.10102636      -0.02873447       0.01590447      -0.04012633
H        5.13154883       5.78592340       4.67379579      -0.00242158       0.00270001      -0.04558421
H        4.92963731       5.36810552       3.00000000       0.00253201      -0.06132674      -0.00743832
H        7.03112725       4.45378477       3.10058788       0.04978162       0.04987188       0.01016872
H        7.05133076       4.42978291       4.86063957      -0.03823922      -0.02254806       0.06446284
H        6.30176603       3.11404799       3.96588590       0.00921087       0.02350783      -0.03624773
11